
Host: DESKTOP-P03H8TC

Timers On : Tue Sep 30 20:17:17 2025
Timers Off: Tue Sep 30 20:20:41 2025

Wall Time:      204.58 seconds

                                                       Time (seconds)
Module                                       User      System        Wall        Calls

--------------------------------------------------------------------------------------

**************************************************************************************

Host: DESKTOP-P03H8TC

Timers On : Tue Sep 30 20:21:22 2025
Timers Off: Tue Sep 30 20:22:44 2025

Wall Time:       81.71 seconds

                                                       Time (seconds)
Module                                       User      System        Wall        Calls

--------------------------------------------------------------------------------------

**************************************************************************************

Host: DESKTOP-P03H8TC

Timers On : Tue Sep 30 20:24:00 2025
Timers Off: Tue Sep 30 20:53:19 2025

Wall Time:     1759.76 seconds

                                                       Time (seconds)
Module                                       User      System        Wall        Calls

--------------------------------------------------------------------------------------

**************************************************************************************

Host: DESKTOP-P03H8TC

Timers On : Tue Sep 30 21:04:10 2025
Timers Off: Tue Sep 30 21:09:06 2025

Wall Time:      295.94 seconds

                                                       Time (seconds)
Module                                       User      System        Wall        Calls

--------------------------------------------------------------------------------------

**************************************************************************************

Host: DESKTOP-P03H8TC

Timers On : Tue Sep 30 21:09:34 2025
Timers Off: Tue Sep 30 21:11:13 2025

Wall Time:       98.67 seconds

                                                       Time (seconds)
Module                                       User      System        Wall        Calls

--------------------------------------------------------------------------------------

**************************************************************************************

Host: DESKTOP-P03H8TC

Timers On : Tue Sep 30 21:32:41 2025
Timers Off: Tue Sep 30 21:34:19 2025

Wall Time:       98.23 seconds

                                                       Time (seconds)
Module                                       User      System        Wall        Calls

--------------------------------------------------------------------------------------

**************************************************************************************

Host: DESKTOP-P03H8TC

Timers On : Tue Sep 30 22:24:14 2025
Timers Off: Tue Sep 30 23:21:01 2025

Wall Time:     3407.36 seconds

                                                       Time (seconds)
Module                                       User      System        Wall        Calls

--------------------------------------------------------------------------------------

**************************************************************************************

Host: DESKTOP-P03H8TC

Timers On : Tue Sep 30 23:21:44 2025
Timers Off: Tue Sep 30 23:22:08 2025

Wall Time:       23.88 seconds

                                                       Time (seconds)
Module                                       User      System        Wall        Calls

--------------------------------------------------------------------------------------

**************************************************************************************

Host: DESKTOP-P03H8TC

Timers On : Tue Sep 30 23:22:19 2025
Timers Off: Tue Sep 30 23:23:13 2025

Wall Time:       53.85 seconds

                                                       Time (seconds)
Module                                       User      System        Wall        Calls

--------------------------------------------------------------------------------------

**************************************************************************************

Host: DESKTOP-P03H8TC

Timers On : Tue Sep 30 23:23:27 2025
Timers Off: Tue Sep 30 23:23:57 2025

Wall Time:       30.73 seconds

                                                       Time (seconds)
Module                                       User      System        Wall        Calls

--------------------------------------------------------------------------------------

**************************************************************************************

Host: DESKTOP-P03H8TC

Timers On : Wed Oct  1 19:17:57 2025
Timers Off: Wed Oct  1 19:41:12 2025

Wall Time:     1395.67 seconds

                                                       Time (seconds)
Module                                       User      System        Wall        Calls

--------------------------------------------------------------------------------------

**************************************************************************************

Host: DESKTOP-P03H8TC

Timers On : Wed Oct  1 19:42:57 2025
Timers Off: Wed Oct  1 21:09:35 2025

Wall Time:     5198.43 seconds

                                                       Time (seconds)
Module                                       User      System        Wall        Calls

--------------------------------------------------------------------------------------

**************************************************************************************

Host: DESKTOP-P03H8TC

Timers On : Wed Oct  1 21:13:59 2025
Timers Off: Wed Oct  1 21:29:21 2025

Wall Time:      922.63 seconds

                                                       Time (seconds)
Module                                       User      System        Wall        Calls

--------------------------------------------------------------------------------------

**************************************************************************************

Host: DESKTOP-P03H8TC

Timers On : Sun Oct  5 08:45:45 2025
Timers Off: Sun Oct  5 09:09:05 2025

Wall Time:     1399.98 seconds

                                                       Time (seconds)
Module                                       User      System        Wall        Calls

--------------------------------------------------------------------------------------

**************************************************************************************

Host: DESKTOP-P03H8TC

Timers On : Sun Oct  5 09:09:16 2025
Timers Off: Sun Oct  5 09:19:11 2025

Wall Time:      595.04 seconds

                                                       Time (seconds)
Module                                       User      System        Wall        Calls

--------------------------------------------------------------------------------------

**************************************************************************************

Host: DESKTOP-P03H8TC

Timers On : Sun Oct  5 09:19:26 2025
Timers Off: Sun Oct  5 09:48:50 2025

Wall Time:     1763.68 seconds

                                                       Time (seconds)
Module                                       User      System        Wall        Calls

--------------------------------------------------------------------------------------

**************************************************************************************

Host: DESKTOP-P03H8TC

Timers On : Sun Oct  5 09:49:18 2025
Timers Off: Sun Oct  5 10:01:56 2025

Wall Time:      757.33 seconds

                                                       Time (seconds)
Module                                       User      System        Wall        Calls

--------------------------------------------------------------------------------------

**************************************************************************************

Host: DESKTOP-P03H8TC

Timers On : Sun Oct  5 10:02:16 2025
Timers Off: Sun Oct  5 10:03:50 2025

Wall Time:       93.58 seconds

                                                       Time (seconds)
Module                                       User      System        Wall        Calls

--------------------------------------------------------------------------------------

**************************************************************************************

Host: DESKTOP-P03H8TC

Timers On : Sun Oct  5 10:04:10 2025
Timers Off: Sun Oct  5 10:08:33 2025

Wall Time:      263.66 seconds

                                                       Time (seconds)
Module                                       User      System        Wall        Calls

--------------------------------------------------------------------------------------

**************************************************************************************

Host: DESKTOP-P03H8TC

Timers On : Sun Oct  5 10:08:58 2025
Timers Off: Sun Oct  5 10:10:10 2025

Wall Time:       71.25 seconds

                                                       Time (seconds)
Module                                       User      System        Wall        Calls

--------------------------------------------------------------------------------------

**************************************************************************************

Host: DESKTOP-P03H8TC

Timers On : Sun Oct  5 10:10:30 2025
Timers Off: Sun Oct  5 10:12:13 2025

Wall Time:      102.97 seconds

                                                       Time (seconds)
Module                                       User      System        Wall        Calls

--------------------------------------------------------------------------------------

**************************************************************************************

Host: DESKTOP-P03H8TC

Timers On : Sun Oct  5 10:12:37 2025
Timers Off: Sun Oct  5 10:15:45 2025

Wall Time:      188.23 seconds

                                                       Time (seconds)
Module                                       User      System        Wall        Calls

--------------------------------------------------------------------------------------

**************************************************************************************

Host: DESKTOP-P03H8TC

Timers On : Sun Oct  5 10:58:11 2025
Timers Off: Sun Oct  5 10:59:46 2025

Wall Time:       95.42 seconds

                                                       Time (seconds)
Module                                       User      System        Wall        Calls

--------------------------------------------------------------------------------------

**************************************************************************************

Host: DESKTOP-P03H8TC

Timers On : Sun Oct  5 11:00:12 2025
Timers Off: Sun Oct  5 11:08:09 2025

Wall Time:      471.98 seconds

                                                       Time (seconds)
Module                                       User      System        Wall        Calls

--------------------------------------------------------------------------------------

**************************************************************************************

Host: DESKTOP-P03H8TC

Timers On : Sun Oct  5 11:08:34 2025
Timers Off: Sun Oct  5 11:31:28 2025

Wall Time:     1374.12 seconds

                                                       Time (seconds)
Module                                       User      System        Wall        Calls

--------------------------------------------------------------------------------------

**************************************************************************************

Host: DESKTOP-P03H8TC

Timers On : Sun Oct  5 11:32:14 2025
Timers Off: Sun Oct  5 12:09:26 2025

Wall Time:     2231.99 seconds

                                                       Time (seconds)
Module                                       User      System        Wall        Calls

--------------------------------------------------------------------------------------

**************************************************************************************

Host: DESKTOP-P03H8TC

Timers On : Sun Oct  5 12:09:54 2025
Timers Off: Mon Oct  6 00:15:03 2025

Wall Time:    43519.38 seconds

                                                       Time (seconds)
Module                                       User      System        Wall        Calls

--------------------------------------------------------------------------------------

**************************************************************************************

Host: DESKTOP-P03H8TC

Timers On : Mon Oct  6 08:24:43 2025
Timers Off: Mon Oct  6 11:12:00 2025

Wall Time:    10036.58 seconds

                                                       Time (seconds)
Module                                       User      System        Wall        Calls

--------------------------------------------------------------------------------------

**************************************************************************************

Host: DESKTOP-P03H8TC

Timers On : Mon Oct  6 11:12:22 2025
Timers Off: Mon Oct  6 11:13:03 2025

Wall Time:       40.88 seconds

                                                       Time (seconds)
Module                                       User      System        Wall        Calls

--------------------------------------------------------------------------------------

**************************************************************************************

Host: DESKTOP-P03H8TC

Timers On : Mon Oct  6 11:13:23 2025
Timers Off: Mon Oct  6 11:14:16 2025

Wall Time:       52.41 seconds

                                                       Time (seconds)
Module                                       User      System        Wall        Calls

--------------------------------------------------------------------------------------

**************************************************************************************

Host: DESKTOP-P03H8TC

Timers On : Mon Oct  6 11:14:35 2025
Timers Off: Mon Oct  6 12:03:00 2025

Wall Time:     2904.61 seconds

                                                       Time (seconds)
Module                                       User      System        Wall        Calls

--------------------------------------------------------------------------------------

**************************************************************************************

Host: DESKTOP-P03H8TC

Timers On : Mon Oct  6 12:03:23 2025
Timers Off: Mon Oct  6 12:20:21 2025

Wall Time:     1017.71 seconds

                                                       Time (seconds)
Module                                       User      System        Wall        Calls

--------------------------------------------------------------------------------------

**************************************************************************************

Host: DESKTOP-P03H8TC

Timers On : Mon Oct  6 12:20:43 2025
Timers Off: Mon Oct  6 12:24:06 2025

Wall Time:      202.52 seconds

                                                       Time (seconds)
Module                                       User      System        Wall        Calls

--------------------------------------------------------------------------------------

**************************************************************************************

Host: DESKTOP-P03H8TC

Timers On : Tue Oct  7 00:27:26 2025
Timers Off: Tue Oct  7 00:30:00 2025

Wall Time:      153.29 seconds

                                                       Time (seconds)
Module                                       User      System        Wall        Calls

--------------------------------------------------------------------------------------

**************************************************************************************

Host: DESKTOP-P03H8TC

Timers On : Tue Oct  7 09:46:31 2025
Timers Off: Tue Oct  7 09:52:55 2025

Wall Time:      384.00 seconds

                                                       Time (seconds)
Module                                       User      System        Wall        Calls

--------------------------------------------------------------------------------------

**************************************************************************************

Host: DESKTOP-P03H8TC

Timers On : Tue Oct  7 09:53:16 2025
Timers Off: Tue Oct  7 10:01:49 2025

Wall Time:      512.23 seconds

                                                       Time (seconds)
Module                                       User      System        Wall        Calls

--------------------------------------------------------------------------------------

**************************************************************************************

Host: DESKTOP-P03H8TC

Timers On : Tue Oct  7 10:02:09 2025
Timers Off: Tue Oct  7 11:10:14 2025

Wall Time:     4085.18 seconds

                                                       Time (seconds)
Module                                       User      System        Wall        Calls

--------------------------------------------------------------------------------------

**************************************************************************************

Host: DESKTOP-P03H8TC

Timers On : Tue Oct  7 11:10:35 2025
Timers Off: Tue Oct  7 11:12:12 2025

Wall Time:       96.96 seconds

                                                       Time (seconds)
Module                                       User      System        Wall        Calls

--------------------------------------------------------------------------------------

**************************************************************************************

Host: DESKTOP-P03H8TC

Timers On : Tue Oct  7 11:12:31 2025
Timers Off: Tue Oct  7 11:13:25 2025

Wall Time:       54.11 seconds

                                                       Time (seconds)
Module                                       User      System        Wall        Calls

--------------------------------------------------------------------------------------

**************************************************************************************

Host: DESKTOP-P03H8TC

Timers On : Tue Oct  7 11:13:46 2025
Timers Off: Tue Oct  7 11:14:57 2025

Wall Time:       71.88 seconds

                                                       Time (seconds)
Module                                       User      System        Wall        Calls

--------------------------------------------------------------------------------------

**************************************************************************************

Host: DESKTOP-P03H8TC

Timers On : Tue Oct  7 11:15:18 2025
Timers Off: Tue Oct  7 11:17:52 2025

Wall Time:      154.74 seconds

                                                       Time (seconds)
Module                                       User      System        Wall        Calls

--------------------------------------------------------------------------------------

**************************************************************************************

Host: DESKTOP-P03H8TC

Timers On : Tue Oct  7 11:18:16 2025
Timers Off: Tue Oct  7 11:23:25 2025

Wall Time:      309.24 seconds

                                                       Time (seconds)
Module                                       User      System        Wall        Calls

--------------------------------------------------------------------------------------

**************************************************************************************

Host: DESKTOP-P03H8TC

Timers On : Tue Oct  7 11:23:46 2025
Timers Off: Tue Oct  7 11:25:52 2025

Wall Time:      126.05 seconds

                                                       Time (seconds)
Module                                       User      System        Wall        Calls

--------------------------------------------------------------------------------------

**************************************************************************************

Host: DESKTOP-P03H8TC

Timers On : Tue Oct  7 11:26:03 2025
Timers Off: Tue Oct  7 11:27:36 2025

Wall Time:       93.27 seconds

                                                       Time (seconds)
Module                                       User      System        Wall        Calls

--------------------------------------------------------------------------------------

**************************************************************************************

Host: DESKTOP-P03H8TC

Timers On : Mon Oct 13 16:10:20 2025
Timers Off: Mon Oct 13 16:10:40 2025

Wall Time:       20.33 seconds

                                                       Time (seconds)
Module                                       User      System        Wall        Calls

--------------------------------------------------------------------------------------

**************************************************************************************

Host: DESKTOP-P03H8TC

Timers On : Mon Oct 13 16:25:11 2025
Timers Off: Mon Oct 13 16:26:11 2025

Wall Time:       60.53 seconds

                                                       Time (seconds)
Module                                       User      System        Wall        Calls

--------------------------------------------------------------------------------------

**************************************************************************************

Host: DESKTOP-P03H8TC

Timers On : Mon Oct 13 16:27:26 2025
Timers Off: Mon Oct 13 16:28:32 2025

Wall Time:       66.24 seconds

                                                       Time (seconds)
Module                                       User      System        Wall        Calls

--------------------------------------------------------------------------------------

**************************************************************************************

Host: DESKTOP-P03H8TC

Timers On : Mon Oct 13 16:29:01 2025
Timers Off: Mon Oct 13 17:12:58 2025

Wall Time:     2636.15 seconds

                                                       Time (seconds)
Module                                       User      System        Wall        Calls

--------------------------------------------------------------------------------------

**************************************************************************************

Host: DESKTOP-P03H8TC

Timers On : Mon Oct 13 17:14:32 2025
Timers Off: Mon Oct 13 17:17:07 2025

Wall Time:      155.18 seconds

                                                       Time (seconds)
Module                                       User      System        Wall        Calls

--------------------------------------------------------------------------------------

**************************************************************************************

Host: DESKTOP-P03H8TC

Timers On : Mon Oct 13 17:22:49 2025
Timers Off: Mon Oct 13 17:24:46 2025

Wall Time:      116.92 seconds

                                                       Time (seconds)
Module                                       User      System        Wall        Calls

--------------------------------------------------------------------------------------

**************************************************************************************

Host: DESKTOP-P03H8TC

Timers On : Mon Oct 13 17:25:59 2025
Timers Off: Mon Oct 13 19:05:25 2025

Wall Time:     5966.39 seconds

                                                       Time (seconds)
Module                                       User      System        Wall        Calls

--------------------------------------------------------------------------------------

**************************************************************************************

Host: DESKTOP-P03H8TC

Timers On : Mon Oct 13 19:14:31 2025
Timers Off: Mon Oct 13 19:16:16 2025

Wall Time:      104.82 seconds

                                                       Time (seconds)
Module                                       User      System        Wall        Calls

--------------------------------------------------------------------------------------

**************************************************************************************

Host: DESKTOP-P03H8TC

Timers On : Mon Oct 13 19:17:58 2025
Timers Off: Mon Oct 13 19:27:29 2025

Wall Time:      570.54 seconds

                                                       Time (seconds)
Module                                       User      System        Wall        Calls

--------------------------------------------------------------------------------------

**************************************************************************************

Host: DESKTOP-P03H8TC

Timers On : Mon Oct 13 19:27:54 2025
Timers Off: Mon Oct 13 19:28:06 2025

Wall Time:       12.73 seconds

                                                       Time (seconds)
Module                                       User      System        Wall        Calls

--------------------------------------------------------------------------------------

**************************************************************************************

Host: DESKTOP-P03H8TC

Timers On : Mon Oct 13 19:28:37 2025
Timers Off: Mon Oct 13 19:28:53 2025

Wall Time:       16.38 seconds

                                                       Time (seconds)
Module                                       User      System        Wall        Calls

--------------------------------------------------------------------------------------

**************************************************************************************

Host: DESKTOP-P03H8TC

Timers On : Mon Oct 13 19:29:20 2025
Timers Off: Mon Oct 13 22:05:32 2025

Wall Time:     9371.85 seconds

                                                       Time (seconds)
Module                                       User      System        Wall        Calls

--------------------------------------------------------------------------------------

**************************************************************************************

Host: DESKTOP-P03H8TC

Timers On : Mon Oct 13 22:05:51 2025
Timers Off: Mon Oct 13 22:17:46 2025

Wall Time:      715.05 seconds

                                                       Time (seconds)
Module                                       User      System        Wall        Calls

--------------------------------------------------------------------------------------

**************************************************************************************

Host: DESKTOP-P03H8TC

Timers On : Mon Oct 13 22:18:25 2025
Timers Off: Mon Oct 13 22:22:17 2025

Wall Time:      232.33 seconds

                                                       Time (seconds)
Module                                       User      System        Wall        Calls

--------------------------------------------------------------------------------------

**************************************************************************************

Host: DESKTOP-P03H8TC

Timers On : Thu Oct 16 12:06:47 2025
Timers Off: Thu Oct 16 12:33:17 2025

Wall Time:     1590.01 seconds

                                                       Time (seconds)
Module                                       User      System        Wall        Calls

--------------------------------------------------------------------------------------

**************************************************************************************

Host: DESKTOP-P03H8TC

Timers On : Thu Oct 16 12:34:52 2025
Timers Off: Thu Oct 16 12:35:34 2025

Wall Time:       42.46 seconds

                                                       Time (seconds)
Module                                       User      System        Wall        Calls

--------------------------------------------------------------------------------------

**************************************************************************************

Host: DESKTOP-P03H8TC

Timers On : Thu Oct 16 12:37:00 2025
Timers Off: Thu Oct 16 14:01:26 2025

Wall Time:     5065.31 seconds

                                                       Time (seconds)
Module                                       User      System        Wall        Calls

--------------------------------------------------------------------------------------

**************************************************************************************

Host: DESKTOP-P03H8TC

Timers On : Thu Oct 16 14:02:07 2025
Timers Off: Thu Oct 16 14:07:09 2025

Wall Time:      302.01 seconds

                                                       Time (seconds)
Module                                       User      System        Wall        Calls

--------------------------------------------------------------------------------------

**************************************************************************************

Host: DESKTOP-P03H8TC

Timers On : Thu Oct 16 14:07:38 2025
Timers Off: Thu Oct 16 14:40:47 2025

Wall Time:     1989.36 seconds

                                                       Time (seconds)
Module                                       User      System        Wall        Calls

--------------------------------------------------------------------------------------

**************************************************************************************

Host: DESKTOP-P03H8TC

Timers On : Thu Oct 16 14:41:27 2025
Timers Off: Thu Oct 16 15:02:37 2025

Wall Time:     1269.38 seconds

                                                       Time (seconds)
Module                                       User      System        Wall        Calls

--------------------------------------------------------------------------------------

**************************************************************************************

Host: DESKTOP-P03H8TC

Timers On : Thu Oct 16 15:02:51 2025
Timers Off: Thu Oct 16 15:16:22 2025

Wall Time:      811.75 seconds

                                                       Time (seconds)
Module                                       User      System        Wall        Calls

--------------------------------------------------------------------------------------

**************************************************************************************

Host: DESKTOP-P03H8TC

Timers On : Thu Oct 16 15:17:17 2025
Timers Off: Thu Oct 16 15:28:26 2025

Wall Time:      668.26 seconds

                                                       Time (seconds)
Module                                       User      System        Wall        Calls

--------------------------------------------------------------------------------------

**************************************************************************************

Host: DESKTOP-P03H8TC

Timers On : Thu Oct 16 15:28:41 2025
Timers Off: Thu Oct 16 15:28:51 2025

Wall Time:        9.97 seconds

                                                       Time (seconds)
Module                                       User      System        Wall        Calls

--------------------------------------------------------------------------------------

**************************************************************************************

Host: DESKTOP-P03H8TC

Timers On : Fri Oct 17 19:30:08 2025
Timers Off: Fri Oct 17 19:56:08 2025

Wall Time:     1560.30 seconds

                                                       Time (seconds)
Module                                       User      System        Wall        Calls

--------------------------------------------------------------------------------------

**************************************************************************************

Host: DESKTOP-P03H8TC

Timers On : Fri Oct 17 20:22:05 2025
Timers Off: Fri Oct 17 21:24:54 2025

Wall Time:     3768.05 seconds

                                                       Time (seconds)
Module                                       User      System        Wall        Calls

--------------------------------------------------------------------------------------

**************************************************************************************

Host: DESKTOP-P03H8TC

Timers On : Fri Oct 17 21:25:40 2025
Timers Off: Fri Oct 17 21:25:52 2025

Wall Time:       11.78 seconds

                                                       Time (seconds)
Module                                       User      System        Wall        Calls

--------------------------------------------------------------------------------------

**************************************************************************************

Host: DESKTOP-P03H8TC

Timers On : Sat Oct 18 13:58:49 2025
Timers Off: Sat Oct 18 14:40:34 2025

Wall Time:     2504.37 seconds

                                                       Time (seconds)
Module                                       User      System        Wall        Calls

--------------------------------------------------------------------------------------

**************************************************************************************

Host: DESKTOP-P03H8TC

Timers On : Sat Oct 18 14:41:00 2025
Timers Off: Sat Oct 18 14:45:45 2025

Wall Time:      284.80 seconds

                                                       Time (seconds)
Module                                       User      System        Wall        Calls

--------------------------------------------------------------------------------------

**************************************************************************************

Host: DESKTOP-P03H8TC

Timers On : Sat Oct 18 14:46:12 2025
Timers Off: Sat Oct 18 14:51:53 2025

Wall Time:      340.82 seconds

                                                       Time (seconds)
Module                                       User      System        Wall        Calls

--------------------------------------------------------------------------------------

**************************************************************************************

Host: DESKTOP-P03H8TC

Timers On : Sat Oct 18 14:52:13 2025
Timers Off: Sat Oct 18 14:59:53 2025

Wall Time:      460.13 seconds

                                                       Time (seconds)
Module                                       User      System        Wall        Calls

--------------------------------------------------------------------------------------

**************************************************************************************

Host: DESKTOP-P03H8TC

Timers On : Sat Oct 18 15:00:24 2025
Timers Off: Sat Oct 18 15:00:57 2025

Wall Time:       33.39 seconds

                                                       Time (seconds)
Module                                       User      System        Wall        Calls

--------------------------------------------------------------------------------------

**************************************************************************************

Host: DESKTOP-P03H8TC

Timers On : Sat Oct 18 15:01:29 2025
Timers Off: Sat Oct 18 21:12:53 2025

Wall Time:    22277.03 seconds

                                                       Time (seconds)
Module                                       User      System        Wall        Calls

--------------------------------------------------------------------------------------

**************************************************************************************

Host: DESKTOP-P03H8TC

Timers On : Sat Oct 18 21:13:21 2025
Timers Off: Sat Oct 18 21:18:38 2025

Wall Time:      316.99 seconds

                                                       Time (seconds)
Module                                       User      System        Wall        Calls

--------------------------------------------------------------------------------------

**************************************************************************************

Host: DESKTOP-P03H8TC

Timers On : Sat Oct 18 21:19:09 2025
Timers Off: Sat Oct 18 21:20:42 2025

Wall Time:       93.60 seconds

                                                       Time (seconds)
Module                                       User      System        Wall        Calls

--------------------------------------------------------------------------------------

**************************************************************************************

Host: DESKTOP-P03H8TC

Timers On : Sat Oct 18 21:21:03 2025
Timers Off: Sat Oct 18 21:23:56 2025

Wall Time:      173.49 seconds

                                                       Time (seconds)
Module                                       User      System        Wall        Calls

--------------------------------------------------------------------------------------

**************************************************************************************

Host: DESKTOP-P03H8TC

Timers On : Sat Oct 18 21:24:22 2025
Timers Off: Sat Oct 18 21:28:00 2025

Wall Time:      218.37 seconds

                                                       Time (seconds)
Module                                       User      System        Wall        Calls

--------------------------------------------------------------------------------------

**************************************************************************************

Host: DESKTOP-P03H8TC

Timers On : Sat Oct 18 21:28:27 2025
Timers Off: Sat Oct 18 21:40:25 2025

Wall Time:      718.21 seconds

                                                       Time (seconds)
Module                                       User      System        Wall        Calls

--------------------------------------------------------------------------------------

**************************************************************************************

Host: DESKTOP-P03H8TC

Timers On : Sat Oct 18 21:40:46 2025
Timers Off: Sat Oct 18 21:44:09 2025

Wall Time:      203.48 seconds

                                                       Time (seconds)
Module                                       User      System        Wall        Calls

--------------------------------------------------------------------------------------

**************************************************************************************

Host: DESKTOP-P03H8TC

Timers On : Sat Oct 18 21:44:36 2025
Timers Off: Sat Oct 18 21:50:48 2025

Wall Time:      371.67 seconds

                                                       Time (seconds)
Module                                       User      System        Wall        Calls

--------------------------------------------------------------------------------------

**************************************************************************************

Host: DESKTOP-P03H8TC

Timers On : Sat Oct 18 21:51:13 2025
Timers Off: Sat Oct 18 21:52:30 2025

Wall Time:       76.78 seconds

                                                       Time (seconds)
Module                                       User      System        Wall        Calls

--------------------------------------------------------------------------------------

**************************************************************************************

Host: DESKTOP-P03H8TC

Timers On : Sat Oct 18 21:52:51 2025
Timers Off: Sat Oct 18 22:00:35 2025

Wall Time:      463.86 seconds

                                                       Time (seconds)
Module                                       User      System        Wall        Calls

--------------------------------------------------------------------------------------

**************************************************************************************

Host: DESKTOP-P03H8TC

Timers On : Sat Oct 18 22:01:07 2025
Timers Off: Sat Oct 18 22:01:47 2025

Wall Time:       39.79 seconds

                                                       Time (seconds)
Module                                       User      System        Wall        Calls

--------------------------------------------------------------------------------------

**************************************************************************************

Host: DESKTOP-P03H8TC

Timers On : Sat Oct 18 22:02:12 2025
Timers Off: Sat Oct 18 22:09:27 2025

Wall Time:      435.61 seconds

                                                       Time (seconds)
Module                                       User      System        Wall        Calls

--------------------------------------------------------------------------------------

**************************************************************************************

Host: TheBox

Timers On : Sun Oct 19 20:05:00 2025
Timers Off: Sun Oct 19 20:30:32 2025

Wall Time:     1531.42 seconds

                                                       Time (seconds)
Module                                       User      System        Wall        Calls

--------------------------------------------------------------------------------------

**************************************************************************************

Host: TheBox

Timers On : Sun Oct 19 20:30:54 2025
Timers Off: Sun Oct 19 20:56:43 2025

Wall Time:     1548.87 seconds

                                                       Time (seconds)
Module                                       User      System        Wall        Calls

--------------------------------------------------------------------------------------

**************************************************************************************

Host: TheBox

Timers On : Sun Oct 19 20:57:35 2025
Timers Off: Sun Oct 19 21:00:57 2025

Wall Time:      202.96 seconds

                                                       Time (seconds)
Module                                       User      System        Wall        Calls

--------------------------------------------------------------------------------------

**************************************************************************************

Host: TheBox

Timers On : Sun Oct 19 21:01:23 2025
Timers Off: Sun Oct 19 21:03:16 2025

Wall Time:      113.28 seconds

                                                       Time (seconds)
Module                                       User      System        Wall        Calls

--------------------------------------------------------------------------------------

**************************************************************************************

Host: TheBox

Timers On : Sun Oct 19 21:03:38 2025
Timers Off: Sun Oct 19 21:04:07 2025

Wall Time:       28.48 seconds

                                                       Time (seconds)
Module                                       User      System        Wall        Calls

--------------------------------------------------------------------------------------

**************************************************************************************

Host: TheBox

Timers On : Sun Oct 19 21:04:54 2025
Timers Off: Sun Oct 19 21:06:38 2025

Wall Time:      103.84 seconds

                                                       Time (seconds)
Module                                       User      System        Wall        Calls

--------------------------------------------------------------------------------------

**************************************************************************************

Host: TheBox

Timers On : Sun Oct 19 21:07:02 2025
Timers Off: Sun Oct 19 21:07:20 2025

Wall Time:       17.36 seconds

                                                       Time (seconds)
Module                                       User      System        Wall        Calls

--------------------------------------------------------------------------------------

**************************************************************************************

Host: TheBox

Timers On : Sun Oct 19 21:07:42 2025
Timers Off: Sun Oct 19 21:07:59 2025

Wall Time:       16.79 seconds

                                                       Time (seconds)
Module                                       User      System        Wall        Calls

--------------------------------------------------------------------------------------

**************************************************************************************

Host: TheBox

Timers On : Sun Oct 19 21:08:37 2025
Timers Off: Sun Oct 19 21:08:56 2025

Wall Time:       19.09 seconds

                                                       Time (seconds)
Module                                       User      System        Wall        Calls

--------------------------------------------------------------------------------------

**************************************************************************************

Host: TheBox

Timers On : Sun Oct 19 21:09:20 2025
Timers Off: Sun Oct 19 21:10:37 2025

Wall Time:       77.42 seconds

                                                       Time (seconds)
Module                                       User      System        Wall        Calls

--------------------------------------------------------------------------------------

**************************************************************************************

Host: TheBox

Timers On : Sun Oct 19 21:11:12 2025
Timers Off: Sun Oct 19 21:17:44 2025

Wall Time:      392.52 seconds

                                                       Time (seconds)
Module                                       User      System        Wall        Calls

--------------------------------------------------------------------------------------

**************************************************************************************

Host: TheBox

Timers On : Sun Oct 19 21:18:47 2025
Timers Off: Sun Oct 19 21:19:52 2025

Wall Time:       64.21 seconds

                                                       Time (seconds)
Module                                       User      System        Wall        Calls

--------------------------------------------------------------------------------------

**************************************************************************************

Host: TheBox

Timers On : Sun Oct 19 21:20:13 2025
Timers Off: Sun Oct 19 21:23:54 2025

Wall Time:      220.78 seconds

                                                       Time (seconds)
Module                                       User      System        Wall        Calls

--------------------------------------------------------------------------------------

**************************************************************************************

Host: TheBox

Timers On : Sun Oct 19 21:24:19 2025
Timers Off: Sun Oct 19 21:27:54 2025

Wall Time:      215.32 seconds

                                                       Time (seconds)
Module                                       User      System        Wall        Calls

--------------------------------------------------------------------------------------

**************************************************************************************

Host: DESKTOP-P03H8TC

Timers On : Mon Oct 20 08:21:55 2025
Timers Off: Mon Oct 20 08:24:41 2025

Wall Time:      165.18 seconds

                                                       Time (seconds)
Module                                       User      System        Wall        Calls

--------------------------------------------------------------------------------------

**************************************************************************************

Host: DESKTOP-P03H8TC

Timers On : Mon Oct 20 08:25:03 2025
Timers Off: Mon Oct 20 08:35:42 2025

Wall Time:      639.25 seconds

                                                       Time (seconds)
Module                                       User      System        Wall        Calls

--------------------------------------------------------------------------------------

**************************************************************************************

Host: DESKTOP-P03H8TC

Timers On : Mon Oct 20 08:36:09 2025
Timers Off: Mon Oct 20 08:39:24 2025

Wall Time:      194.50 seconds

                                                       Time (seconds)
Module                                       User      System        Wall        Calls

--------------------------------------------------------------------------------------

**************************************************************************************

Host: DESKTOP-P03H8TC

Timers On : Mon Oct 20 08:39:46 2025
Timers Off: Mon Oct 20 08:39:59 2025

Wall Time:       13.06 seconds

                                                       Time (seconds)
Module                                       User      System        Wall        Calls

--------------------------------------------------------------------------------------

**************************************************************************************

Host: DESKTOP-P03H8TC

Timers On : Mon Oct 20 08:40:24 2025
Timers Off: Mon Oct 20 08:44:19 2025

Wall Time:      235.87 seconds

                                                       Time (seconds)
Module                                       User      System        Wall        Calls

--------------------------------------------------------------------------------------

**************************************************************************************

Host: DESKTOP-P03H8TC

Timers On : Mon Oct 20 08:44:40 2025
Timers Off: Mon Oct 20 08:48:30 2025

Wall Time:      229.01 seconds

                                                       Time (seconds)
Module                                       User      System        Wall        Calls

--------------------------------------------------------------------------------------

**************************************************************************************

Host: DESKTOP-P03H8TC

Timers On : Mon Oct 20 08:49:01 2025
Timers Off: Mon Oct 20 08:49:54 2025

Wall Time:       53.45 seconds

                                                       Time (seconds)
Module                                       User      System        Wall        Calls

--------------------------------------------------------------------------------------

**************************************************************************************

Host: DESKTOP-P03H8TC

Timers On : Mon Oct 20 08:50:18 2025
Timers Off: Mon Oct 20 08:50:46 2025

Wall Time:       27.23 seconds

                                                       Time (seconds)
Module                                       User      System        Wall        Calls

--------------------------------------------------------------------------------------

**************************************************************************************

Host: DESKTOP-P03H8TC

Timers On : Mon Oct 20 08:51:16 2025
Timers Off: Mon Oct 20 08:51:54 2025

Wall Time:       38.90 seconds

                                                       Time (seconds)
Module                                       User      System        Wall        Calls

--------------------------------------------------------------------------------------

**************************************************************************************

Host: DESKTOP-P03H8TC

Timers On : Mon Oct 20 08:52:16 2025
Timers Off: Mon Oct 20 08:53:45 2025

Wall Time:       88.41 seconds

                                                       Time (seconds)
Module                                       User      System        Wall        Calls

--------------------------------------------------------------------------------------

**************************************************************************************

Host: DESKTOP-P03H8TC

Timers On : Mon Oct 20 08:54:12 2025
Timers Off: Mon Oct 20 09:04:39 2025

Wall Time:      626.85 seconds

                                                       Time (seconds)
Module                                       User      System        Wall        Calls

--------------------------------------------------------------------------------------

**************************************************************************************

Host: DESKTOP-P03H8TC

Timers On : Mon Oct 20 09:05:02 2025
Timers Off: Mon Oct 20 09:05:44 2025

Wall Time:       42.26 seconds

                                                       Time (seconds)
Module                                       User      System        Wall        Calls

--------------------------------------------------------------------------------------

**************************************************************************************

Host: DESKTOP-P03H8TC

Timers On : Mon Oct 20 09:06:00 2025
Timers Off: Mon Oct 20 09:10:25 2025

Wall Time:      264.89 seconds

                                                       Time (seconds)
Module                                       User      System        Wall        Calls

--------------------------------------------------------------------------------------

**************************************************************************************

Host: DESKTOP-P03H8TC

Timers On : Thu Oct 23 18:47:25 2025
Timers Off: Thu Oct 23 18:51:11 2025

Wall Time:      225.98 seconds

                                                       Time (seconds)
Module                                       User      System        Wall        Calls

--------------------------------------------------------------------------------------

**************************************************************************************

Host: DESKTOP-P03H8TC

Timers On : Thu Oct 23 18:51:28 2025
Timers Off: Thu Oct 23 19:06:08 2025

Wall Time:      879.91 seconds

                                                       Time (seconds)
Module                                       User      System        Wall        Calls

--------------------------------------------------------------------------------------

**************************************************************************************

Host: DESKTOP-P03H8TC

Timers On : Thu Oct 23 19:06:25 2025
Timers Off: Thu Oct 23 19:06:41 2025

Wall Time:       15.98 seconds

                                                       Time (seconds)
Module                                       User      System        Wall        Calls

--------------------------------------------------------------------------------------

**************************************************************************************

Host: DESKTOP-P03H8TC

Timers On : Thu Oct 23 19:06:56 2025
Timers Off: Thu Oct 23 19:07:41 2025

Wall Time:       45.14 seconds

                                                       Time (seconds)
Module                                       User      System        Wall        Calls

--------------------------------------------------------------------------------------

**************************************************************************************

Host: DESKTOP-P03H8TC

Timers On : Thu Oct 23 19:09:31 2025
Timers Off: Thu Oct 23 19:09:33 2025

Wall Time:        1.39 seconds

                                                       Time (seconds)
Module                                       User      System        Wall        Calls

--------------------------------------------------------------------------------------

**************************************************************************************

Host: DESKTOP-P03H8TC

Timers On : Thu Oct 23 19:10:03 2025
Timers Off: Thu Oct 23 19:10:05 2025

Wall Time:        1.36 seconds

                                                       Time (seconds)
Module                                       User      System        Wall        Calls

--------------------------------------------------------------------------------------

**************************************************************************************

Host: DESKTOP-P03H8TC

Timers On : Thu Oct 23 19:17:30 2025
Timers Off: Thu Oct 23 19:17:40 2025

Wall Time:        9.66 seconds

                                                       Time (seconds)
Module                                       User      System        Wall        Calls

--------------------------------------------------------------------------------------

**************************************************************************************

Host: DESKTOP-P03H8TC

Timers On : Thu Oct 23 19:17:55 2025
Timers Off: Thu Oct 23 19:19:20 2025

Wall Time:       84.85 seconds

                                                       Time (seconds)
Module                                       User      System        Wall        Calls

--------------------------------------------------------------------------------------

**************************************************************************************

Host: DESKTOP-P03H8TC

Timers On : Thu Oct 23 19:19:54 2025
Timers Off: Thu Oct 23 19:20:08 2025

Wall Time:       13.51 seconds

                                                       Time (seconds)
Module                                       User      System        Wall        Calls

--------------------------------------------------------------------------------------

**************************************************************************************

Host: DESKTOP-P03H8TC

Timers On : Thu Oct 23 19:20:42 2025
Timers Off: Thu Oct 23 19:21:39 2025

Wall Time:       57.15 seconds

                                                       Time (seconds)
Module                                       User      System        Wall        Calls

--------------------------------------------------------------------------------------

**************************************************************************************

Host: DESKTOP-P03H8TC

Timers On : Thu Oct 23 19:21:51 2025
Timers Off: Thu Oct 23 19:22:03 2025

Wall Time:       12.60 seconds

                                                       Time (seconds)
Module                                       User      System        Wall        Calls

--------------------------------------------------------------------------------------

**************************************************************************************

Host: DESKTOP-P03H8TC

Timers On : Sun Oct 26 18:19:59 2025
Timers Off: Sun Oct 26 18:55:50 2025

Wall Time:     2151.02 seconds

                                                       Time (seconds)
Module                                       User      System        Wall        Calls

--------------------------------------------------------------------------------------

**************************************************************************************

Host: DESKTOP-P03H8TC

Timers On : Sun Oct 26 18:56:32 2025
Timers Off: Sun Oct 26 19:40:32 2025

Wall Time:     2639.48 seconds

                                                       Time (seconds)
Module                                       User      System        Wall        Calls

--------------------------------------------------------------------------------------

**************************************************************************************

Host: DESKTOP-P03H8TC

Timers On : Sun Oct 26 19:40:57 2025
Timers Off: Sun Oct 26 20:58:59 2025

Wall Time:     4681.88 seconds

                                                       Time (seconds)
Module                                       User      System        Wall        Calls

--------------------------------------------------------------------------------------

**************************************************************************************

Host: DESKTOP-P03H8TC

Timers On : Sun Oct 26 20:59:35 2025
Timers Off: Sun Oct 26 21:03:25 2025

Wall Time:      230.11 seconds

                                                       Time (seconds)
Module                                       User      System        Wall        Calls

--------------------------------------------------------------------------------------

**************************************************************************************

Host: DESKTOP-P03H8TC

Timers On : Sun Oct 26 21:03:53 2025
Timers Off: Sun Oct 26 21:04:32 2025

Wall Time:       39.78 seconds

                                                       Time (seconds)
Module                                       User      System        Wall        Calls

--------------------------------------------------------------------------------------

**************************************************************************************

Host: DESKTOP-P03H8TC

Timers On : Sun Oct 26 21:06:07 2025
Timers Off: Sun Oct 26 21:06:40 2025

Wall Time:       32.88 seconds

                                                       Time (seconds)
Module                                       User      System        Wall        Calls

--------------------------------------------------------------------------------------

**************************************************************************************

Host: DESKTOP-P03H8TC

Timers On : Sun Oct 26 21:07:02 2025
Timers Off: Sun Oct 26 21:19:52 2025

Wall Time:      770.37 seconds

                                                       Time (seconds)
Module                                       User      System        Wall        Calls

--------------------------------------------------------------------------------------

**************************************************************************************

Host: DESKTOP-P03H8TC

Timers On : Sun Oct 26 21:20:30 2025
Timers Off: Sun Oct 26 21:21:17 2025

Wall Time:       46.77 seconds

                                                       Time (seconds)
Module                                       User      System        Wall        Calls

--------------------------------------------------------------------------------------

**************************************************************************************

Host: DESKTOP-P03H8TC

Timers On : Sun Oct 26 21:21:45 2025
Timers Off: Sun Oct 26 21:22:04 2025

Wall Time:       19.19 seconds

                                                       Time (seconds)
Module                                       User      System        Wall        Calls

--------------------------------------------------------------------------------------

**************************************************************************************

Host: DESKTOP-P03H8TC

Timers On : Sun Oct 26 21:22:32 2025
Timers Off: Sun Oct 26 21:22:51 2025

Wall Time:       18.53 seconds

                                                       Time (seconds)
Module                                       User      System        Wall        Calls

--------------------------------------------------------------------------------------

**************************************************************************************

Host: DESKTOP-P03H8TC

Timers On : Sun Oct 26 21:23:12 2025
Timers Off: Sun Oct 26 23:54:40 2025

Wall Time:     9087.50 seconds

                                                       Time (seconds)
Module                                       User      System        Wall        Calls

--------------------------------------------------------------------------------------

**************************************************************************************

Host: DESKTOP-P03H8TC

Timers On : Thu Oct 30 10:33:05 2025
Timers Off: Thu Oct 30 10:48:09 2025

Wall Time:      904.00 seconds

                                                       Time (seconds)
Module                                       User      System        Wall        Calls

--------------------------------------------------------------------------------------

**************************************************************************************

Host: DESKTOP-P03H8TC

Timers On : Thu Oct 30 10:58:12 2025
Timers Off: Thu Oct 30 10:59:51 2025

Wall Time:       98.20 seconds

                                                       Time (seconds)
Module                                       User      System        Wall        Calls

--------------------------------------------------------------------------------------

**************************************************************************************

Host: DESKTOP-P03H8TC

Timers On : Thu Oct 30 11:00:01 2025
Timers Off: Thu Oct 30 11:10:17 2025

Wall Time:      615.63 seconds

                                                       Time (seconds)
Module                                       User      System        Wall        Calls

--------------------------------------------------------------------------------------

**************************************************************************************

Host: DESKTOP-P03H8TC

Timers On : Thu Oct 30 11:11:44 2025
Timers Off: Thu Oct 30 11:20:34 2025

Wall Time:      529.75 seconds

                                                       Time (seconds)
Module                                       User      System        Wall        Calls

--------------------------------------------------------------------------------------

**************************************************************************************

Host: DESKTOP-P03H8TC

Timers On : Thu Oct 30 11:20:45 2025
Timers Off: Thu Oct 30 11:56:17 2025

Wall Time:     2132.15 seconds

                                                       Time (seconds)
Module                                       User      System        Wall        Calls

--------------------------------------------------------------------------------------

**************************************************************************************

Host: DESKTOP-P03H8TC

Timers On : Thu Oct 30 11:57:05 2025
Timers Off: Thu Oct 30 11:57:21 2025

Wall Time:       16.48 seconds

                                                       Time (seconds)
Module                                       User      System        Wall        Calls

--------------------------------------------------------------------------------------

**************************************************************************************

Host: DESKTOP-P03H8TC

Timers On : Thu Oct 30 11:57:38 2025
Timers Off: Thu Oct 30 12:00:03 2025

Wall Time:      145.05 seconds

                                                       Time (seconds)
Module                                       User      System        Wall        Calls

--------------------------------------------------------------------------------------

**************************************************************************************

Host: DESKTOP-P03H8TC

Timers On : Thu Oct 30 12:00:15 2025
Timers Off: Thu Oct 30 12:28:29 2025

Wall Time:     1694.10 seconds

                                                       Time (seconds)
Module                                       User      System        Wall        Calls

--------------------------------------------------------------------------------------

**************************************************************************************

Host: DESKTOP-P03H8TC

Timers On : Tue Nov  4 17:00:52 2025
Timers Off: Tue Nov  4 17:01:23 2025

Wall Time:       31.54 seconds

                                                       Time (seconds)
Module                                       User      System        Wall        Calls

--------------------------------------------------------------------------------------

**************************************************************************************

Host: DESKTOP-P03H8TC

Timers On : Tue Nov  4 17:02:12 2025
Timers Off: Tue Nov  4 17:04:04 2025

Wall Time:      112.18 seconds

                                                       Time (seconds)
Module                                       User      System        Wall        Calls

--------------------------------------------------------------------------------------

**************************************************************************************

Host: DESKTOP-P03H8TC

Timers On : Tue Nov  4 17:05:03 2025
Timers Off: Tue Nov  4 17:11:10 2025

Wall Time:      366.66 seconds

                                                       Time (seconds)
Module                                       User      System        Wall        Calls

--------------------------------------------------------------------------------------

**************************************************************************************

Host: DESKTOP-P03H8TC

Timers On : Tue Nov  4 17:11:25 2025
Timers Off: Tue Nov  4 17:11:44 2025

Wall Time:       19.46 seconds

                                                       Time (seconds)
Module                                       User      System        Wall        Calls

--------------------------------------------------------------------------------------

**************************************************************************************

Host: DESKTOP-P03H8TC

Timers On : Tue Nov  4 18:06:31 2025
Timers Off: Tue Nov  4 18:16:16 2025

Wall Time:      585.43 seconds

                                                       Time (seconds)
Module                                       User      System        Wall        Calls

--------------------------------------------------------------------------------------

**************************************************************************************

Host: DESKTOP-P03H8TC

Timers On : Tue Nov  4 18:20:28 2025
Timers Off: Tue Nov  4 18:21:49 2025

Wall Time:       80.57 seconds

                                                       Time (seconds)
Module                                       User      System        Wall        Calls

--------------------------------------------------------------------------------------

**************************************************************************************

Host: DESKTOP-P03H8TC

Timers On : Tue Nov  4 18:26:35 2025
Timers Off: Tue Nov  4 18:34:03 2025

Wall Time:      447.88 seconds

                                                       Time (seconds)
Module                                       User      System        Wall        Calls

--------------------------------------------------------------------------------------

**************************************************************************************

Host: DESKTOP-P03H8TC

Timers On : Tue Nov  4 18:34:20 2025
Timers Off: Tue Nov  4 18:35:16 2025

Wall Time:       56.78 seconds

                                                       Time (seconds)
Module                                       User      System        Wall        Calls

--------------------------------------------------------------------------------------

**************************************************************************************

Host: DESKTOP-P03H8TC

Timers On : Tue Nov  4 18:35:31 2025
Timers Off: Tue Nov  4 18:39:58 2025

Wall Time:      266.98 seconds

                                                       Time (seconds)
Module                                       User      System        Wall        Calls

--------------------------------------------------------------------------------------

**************************************************************************************

Host: DESKTOP-P03H8TC

Timers On : Tue Nov  4 18:40:08 2025
Timers Off: Tue Nov  4 18:46:27 2025

Wall Time:      378.49 seconds

                                                       Time (seconds)
Module                                       User      System        Wall        Calls

--------------------------------------------------------------------------------------

**************************************************************************************

Host: DESKTOP-P03H8TC

Timers On : Tue Nov 18 23:32:17 2025
Timers Off: Tue Nov 18 23:32:21 2025

Wall Time:        4.07 seconds

                                                       Time (seconds)
Module                                       User      System        Wall        Calls

--------------------------------------------------------------------------------------

**************************************************************************************

Host: DESKTOP-P03H8TC

Timers On : Tue Nov 18 23:36:18 2025
Timers Off: Tue Nov 18 23:36:21 2025

Wall Time:        2.69 seconds

                                                       Time (seconds)
Module                                       User      System        Wall        Calls

--------------------------------------------------------------------------------------

**************************************************************************************

Host: DESKTOP-P03H8TC

Timers On : Tue Nov 18 23:38:10 2025
Timers Off: Tue Nov 18 23:39:20 2025

Wall Time:       70.25 seconds

                                                       Time (seconds)
Module                                       User      System        Wall        Calls

--------------------------------------------------------------------------------------

**************************************************************************************

Host: DESKTOP-P03H8TC

Timers On : Tue Nov 18 23:39:56 2025
Timers Off: Tue Nov 18 23:40:02 2025

Wall Time:        5.48 seconds

                                                       Time (seconds)
Module                                       User      System        Wall        Calls

--------------------------------------------------------------------------------------

**************************************************************************************

Host: DESKTOP-P03H8TC

Timers On : Tue Nov 18 23:41:50 2025
Timers Off: Tue Nov 18 23:41:53 2025

Wall Time:        2.81 seconds

                                                       Time (seconds)
Module                                       User      System        Wall        Calls

--------------------------------------------------------------------------------------

**************************************************************************************

Host: DESKTOP-P03H8TC

Timers On : Tue Nov 18 23:43:21 2025
Timers Off: Tue Nov 18 23:44:11 2025

Wall Time:       50.16 seconds

                                                       Time (seconds)
Module                                       User      System        Wall        Calls

--------------------------------------------------------------------------------------

**************************************************************************************

Host: DESKTOP-P03H8TC

Timers On : Tue Nov 18 23:44:39 2025
Timers Off: Tue Nov 18 23:44:42 2025

Wall Time:        3.45 seconds

                                                       Time (seconds)
Module                                       User      System        Wall        Calls

--------------------------------------------------------------------------------------

**************************************************************************************

Host: DESKTOP-P03H8TC

Timers On : Tue Nov 18 23:45:11 2025
Timers Off: Tue Nov 18 23:45:14 2025

Wall Time:        3.17 seconds

                                                       Time (seconds)
Module                                       User      System        Wall        Calls

--------------------------------------------------------------------------------------

**************************************************************************************

Host: DESKTOP-P03H8TC

Timers On : Tue Nov 18 23:47:06 2025
Timers Off: Tue Nov 18 23:47:10 2025

Wall Time:        3.41 seconds

                                                       Time (seconds)
Module                                       User      System        Wall        Calls

--------------------------------------------------------------------------------------

**************************************************************************************

Host: DESKTOP-P03H8TC

Timers On : Tue Nov 18 23:50:53 2025
Timers Off: Tue Nov 18 23:50:57 2025

Wall Time:        3.49 seconds

                                                       Time (seconds)
Module                                       User      System        Wall        Calls

--------------------------------------------------------------------------------------

**************************************************************************************

Host: DESKTOP-P03H8TC

Timers On : Tue Nov 18 23:52:31 2025
Timers Off: Tue Nov 18 23:52:34 2025

Wall Time:        3.37 seconds

                                                       Time (seconds)
Module                                       User      System        Wall        Calls

--------------------------------------------------------------------------------------

**************************************************************************************

Host: DESKTOP-P03H8TC

Timers On : Tue Nov 18 23:53:00 2025
Timers Off: Tue Nov 18 23:53:03 2025

Wall Time:        3.15 seconds

                                                       Time (seconds)
Module                                       User      System        Wall        Calls

--------------------------------------------------------------------------------------

**************************************************************************************

Host: TheBox

Timers On : Tue Nov 18 21:16:42 2025
Timers Off: Wed Nov 19 00:30:05 2025

Wall Time:    11603.02 seconds

                                                       Time (seconds)
Module                                       User      System        Wall        Calls

--------------------------------------------------------------------------------------

**************************************************************************************

Host: TheBox

Timers On : Wed Nov 19 00:30:20 2025
Timers Off: Wed Nov 19 01:52:40 2025

Wall Time:     4940.59 seconds

                                                       Time (seconds)
Module                                       User      System        Wall        Calls

--------------------------------------------------------------------------------------

**************************************************************************************

Host: TheBox

Timers On : Wed Nov 19 01:52:59 2025
Timers Off: Wed Nov 19 01:53:33 2025

Wall Time:       33.51 seconds

                                                       Time (seconds)
Module                                       User      System        Wall        Calls

--------------------------------------------------------------------------------------

**************************************************************************************

Host: TheBox

Timers On : Wed Nov 19 01:53:48 2025
Timers Off: Wed Nov 19 01:54:11 2025

Wall Time:       23.32 seconds

                                                       Time (seconds)
Module                                       User      System        Wall        Calls

--------------------------------------------------------------------------------------

**************************************************************************************

Host: TheBox

Timers On : Wed Nov 19 01:59:54 2025
Timers Off: Wed Nov 19 01:59:57 2025

Wall Time:        2.52 seconds

                                                       Time (seconds)
Module                                       User      System        Wall        Calls

--------------------------------------------------------------------------------------

**************************************************************************************

Host: TheBox

Timers On : Wed Nov 19 02:00:39 2025
Timers Off: Wed Nov 19 02:00:41 2025

Wall Time:        2.46 seconds

                                                       Time (seconds)
Module                                       User      System        Wall        Calls

--------------------------------------------------------------------------------------

**************************************************************************************

Host: TheBox

Timers On : Wed Nov 19 19:07:13 2025
Timers Off: Wed Nov 19 19:10:47 2025

Wall Time:      214.61 seconds

                                                       Time (seconds)
Module                                       User      System        Wall        Calls

--------------------------------------------------------------------------------------

[...]

Wall Time:      165.44 seconds

                                                       Time (seconds)
Module                                       User      System        Wall        Calls

--------------------------------------------------------------------------------------

**************************************************************************************

Host: TheBox

Timers On : Thu Feb 12 01:56:15 2026
Timers Off: Thu Feb 12 01:56:24 2026

Wall Time:        8.78 seconds

                                                       Time (seconds)
Module                                       User      System        Wall        Calls

--------------------------------------------------------------------------------------

**************************************************************************************

Host: TheBox

Timers On : Thu Feb 12 01:56:38 2026
Timers Off: Thu Feb 12 01:59:48 2026

Wall Time:      189.92 seconds

                                                       Time (seconds)
Module                                       User      System        Wall        Calls

--------------------------------------------------------------------------------------

**************************************************************************************

Host: TheBox

Timers On : Thu Feb 12 02:00:05 2026
Timers Off: Thu Feb 12 02:05:10 2026

Wall Time:      304.32 seconds

                                                       Time (seconds)
Module                                       User      System        Wall        Calls

--------------------------------------------------------------------------------------

**************************************************************************************

Host: TheBox

Timers On : Fri Feb 13 00:05:23 2026
Timers Off: Fri Feb 13 00:18:19 2026

Wall Time:      776.53 seconds

                                                       Time (seconds)
Module                                       User      System        Wall        Calls

--------------------------------------------------------------------------------------

**************************************************************************************

Host: TheBox

Timers On : Fri Feb 13 00:19:38 2026
Timers Off: Fri Feb 13 00:19:40 2026

Wall Time:        1.98 seconds

                                                       Time (seconds)
Module                                       User      System        Wall        Calls

--------------------------------------------------------------------------------------

**************************************************************************************

Host: TheBox

Timers On : Fri Feb 13 00:20:43 2026
Timers Off: Fri Feb 13 00:20:46 2026

Wall Time:        2.45 seconds

                                                       Time (seconds)
Module                                       User      System        Wall        Calls

--------------------------------------------------------------------------------------

**************************************************************************************

Host: TheBox

Timers On : Fri Feb 13 00:23:20 2026
Timers Off: Fri Feb 13 00:33:42 2026

Wall Time:      622.10 seconds

                                                       Time (seconds)
Module                                       User      System        Wall        Calls

--------------------------------------------------------------------------------------

**************************************************************************************

Host: TheBox

Timers On : Fri Feb 13 00:36:52 2026
Timers Off: Fri Feb 13 00:36:54 2026

Wall Time:        1.38 seconds

                                                       Time (seconds)
Module                                       User      System        Wall        Calls

--------------------------------------------------------------------------------------

**************************************************************************************

Host: TheBox

Timers On : Fri Feb 13 00:37:20 2026
Timers Off: Fri Feb 13 00:37:22 2026

Wall Time:        1.37 seconds

                                                       Time (seconds)
Module                                       User      System        Wall        Calls

--------------------------------------------------------------------------------------

**************************************************************************************

Host: TheBox

Timers On : Sun Feb 15 23:29:33 2026
Timers Off: Sun Feb 15 23:29:46 2026

Wall Time:       12.97 seconds

                                                       Time (seconds)
Module                                       User      System        Wall        Calls

--------------------------------------------------------------------------------------

**************************************************************************************

Host: TheBox

Timers On : Sun Feb 15 23:30:03 2026
Timers Off: Sun Feb 15 23:30:22 2026

Wall Time:       19.71 seconds

                                                       Time (seconds)
Module                                       User      System        Wall        Calls

--------------------------------------------------------------------------------------

**************************************************************************************

Host: TheBox

Timers On : Sun Feb 15 23:30:39 2026
Timers Off: Sun Feb 15 23:32:13 2026

Wall Time:       94.52 seconds

                                                       Time (seconds)
Module                                       User      System        Wall        Calls

--------------------------------------------------------------------------------------

**************************************************************************************

Host: TheBox

Timers On : Sun Feb 15 23:32:58 2026
Timers Off: Sun Feb 15 23:32:59 2026

Wall Time:        1.35 seconds

                                                       Time (seconds)
Module                                       User      System        Wall        Calls

--------------------------------------------------------------------------------------

**************************************************************************************

Host: TheBox

Timers On : Sun Feb 15 23:33:34 2026
Timers Off: Sun Feb 15 23:33:35 2026

Wall Time:        1.31 seconds

                                                       Time (seconds)
Module                                       User      System        Wall        Calls

--------------------------------------------------------------------------------------

**************************************************************************************

Host: TheBox

Timers On : Sun Feb 15 23:45:50 2026
Timers Off: Mon Feb 16 00:03:30 2026

Wall Time:     1060.06 seconds

                                                       Time (seconds)
Module                                       User      System        Wall        Calls

--------------------------------------------------------------------------------------

**************************************************************************************

Host: TheBox

Timers On : Mon Feb 16 00:03:49 2026
Timers Off: Mon Feb 16 00:03:50 2026

Wall Time:        0.99 seconds

                                                       Time (seconds)
Module                                       User      System        Wall        Calls

--------------------------------------------------------------------------------------

**************************************************************************************

Host: TheBox

Timers On : Mon Feb 16 00:04:28 2026
Timers Off: Mon Feb 16 00:16:41 2026

Wall Time:      732.32 seconds

                                                       Time (seconds)
Module                                       User      System        Wall        Calls

--------------------------------------------------------------------------------------

**************************************************************************************

Host: TheBox

Timers On : Mon Feb 16 00:16:58 2026
Timers Off: Mon Feb 16 00:17:04 2026

Wall Time:        5.96 seconds

                                                       Time (seconds)
Module                                       User      System        Wall        Calls

--------------------------------------------------------------------------------------

**************************************************************************************

Host: TheBox

Timers On : Mon Feb 16 00:23:12 2026
Timers Off: Mon Feb 16 00:23:13 2026

Wall Time:        1.46 seconds

                                                       Time (seconds)
Module                                       User      System        Wall        Calls

--------------------------------------------------------------------------------------

**************************************************************************************

Host: TheBox

Timers On : Mon Feb 16 00:17:20 2026
Timers Off: Mon Feb 16 00:23:20 2026

Wall Time:      360.36 seconds

                                                       Time (seconds)
Module                                       User      System        Wall        Calls

--------------------------------------------------------------------------------------

**************************************************************************************

Host: TheBox

Timers On : Mon Feb 16 00:23:38 2026
Timers Off: Mon Feb 16 00:29:35 2026

Wall Time:      357.63 seconds

                                                       Time (seconds)
Module                                       User      System        Wall        Calls

--------------------------------------------------------------------------------------

**************************************************************************************

Host: TheBox

Timers On : Mon Feb 16 00:29:53 2026
Timers Off: Mon Feb 16 00:29:59 2026

Wall Time:        5.97 seconds

                                                       Time (seconds)
Module                                       User      System        Wall        Calls

--------------------------------------------------------------------------------------

**************************************************************************************

Host: TheBox

Timers On : Mon Feb 16 00:30:16 2026
Timers Off: Mon Feb 16 00:33:40 2026

Wall Time:      204.53 seconds

                                                       Time (seconds)
Module                                       User      System        Wall        Calls

--------------------------------------------------------------------------------------

**************************************************************************************

Host: TheBox

Timers On : Mon Feb 16 00:33:58 2026
Timers Off: Mon Feb 16 00:34:04 2026

Wall Time:        6.11 seconds

                                                       Time (seconds)
Module                                       User      System        Wall        Calls

--------------------------------------------------------------------------------------

**************************************************************************************

Host: TheBox

Timers On : Mon Feb 16 00:34:22 2026
Timers Off: Mon Feb 16 00:36:01 2026

Wall Time:       98.87 seconds

                                                       Time (seconds)
Module                                       User      System        Wall        Calls

--------------------------------------------------------------------------------------

**************************************************************************************

Host: TheBox

Timers On : Mon Feb 16 00:36:17 2026
Timers Off: Mon Feb 16 00:41:16 2026

Wall Time:      298.76 seconds

                                                       Time (seconds)
Module                                       User      System        Wall        Calls

--------------------------------------------------------------------------------------

**************************************************************************************

Host: DeadLock

Timers On : Tue Feb 17 22:37:27 2026
Timers Off: Tue Feb 17 22:37:32 2026

Wall Time:        4.46 seconds

                                                       Time (seconds)
Module                                       User      System        Wall        Calls

--------------------------------------------------------------------------------------

**************************************************************************************

Host: DeadLock

Timers On : Tue Feb 17 22:06:38 2026
Timers Off: Tue Feb 17 22:45:24 2026

Wall Time:     2326.26 seconds

                                                       Time (seconds)
Module                                       User      System        Wall        Calls

--------------------------------------------------------------------------------------

**************************************************************************************

Host: DeadLock

Timers On : Tue Feb 17 22:46:29 2026
Timers Off: Tue Feb 17 22:46:34 2026

Wall Time:        4.69 seconds

                                                       Time (seconds)
Module                                       User      System        Wall        Calls

--------------------------------------------------------------------------------------

**************************************************************************************

Host: DeadLock

Timers On : Tue Feb 17 22:47:17 2026
Timers Off: Tue Feb 17 22:47:21 2026

Wall Time:        3.86 seconds

                                                       Time (seconds)
Module                                       User      System        Wall        Calls

--------------------------------------------------------------------------------------

**************************************************************************************

Host: DeadLock

Timers On : Tue Feb 17 22:48:33 2026
Timers Off: Tue Feb 17 22:48:36 2026

Wall Time:        3.53 seconds

                                                       Time (seconds)
Module                                       User      System        Wall        Calls

--------------------------------------------------------------------------------------

**************************************************************************************

Host: DeadLock

Timers On : Tue Feb 17 22:49:48 2026
Timers Off: Tue Feb 17 23:00:30 2026

Wall Time:      642.88 seconds

                                                       Time (seconds)
Module                                       User      System        Wall        Calls

--------------------------------------------------------------------------------------

**************************************************************************************

Host: DeadLock

Timers On : Thu Feb 19 16:18:15 2026
Timers Off: Thu Feb 19 19:08:10 2026

Wall Time:    10194.42 seconds

                                                       Time (seconds)
Module                                       User      System        Wall        Calls

--------------------------------------------------------------------------------------

**************************************************************************************

Host: DeadLock

Timers On : Thu Feb 19 22:31:56 2026
Timers Off: Thu Feb 19 23:35:18 2026

Wall Time:     3801.89 seconds

                                                       Time (seconds)
Module                                       User      System        Wall        Calls

--------------------------------------------------------------------------------------

**************************************************************************************

Host: DeadLock

Timers On : Thu Feb 19 23:36:02 2026
Timers Off: Thu Feb 19 23:56:28 2026

Wall Time:     1225.90 seconds

                                                       Time (seconds)
Module                                       User      System        Wall        Calls

--------------------------------------------------------------------------------------

**************************************************************************************

Host: DeadLock

Timers On : Sun Feb 22 05:26:06 2026
Timers Off: Sun Feb 22 05:27:56 2026

Wall Time:      109.68 seconds

                                                       Time (seconds)
Module                                       User      System        Wall        Calls

--------------------------------------------------------------------------------------

**************************************************************************************

Host: DeadLock

Timers On : Sun Feb 22 23:15:27 2026
Timers Off: Sun Feb 22 23:55:37 2026

Wall Time:     2409.27 seconds

                                                       Time (seconds)
Module                                       User      System        Wall        Calls

--------------------------------------------------------------------------------------

**************************************************************************************

Host: DeadLock

Timers On : Mon Feb 23 13:58:03 2026
Timers Off: Mon Feb 23 19:13:00 2026

Wall Time:    18897.19 seconds

                                                       Time (seconds)
Module                                       User      System        Wall        Calls

--------------------------------------------------------------------------------------

**************************************************************************************

Host: DeadLock

Timers On : Mon Feb 23 19:17:09 2026
Timers Off: Tue Feb 24 01:36:17 2026

Wall Time:    22744.02 seconds

                                                       Time (seconds)
Module                                       User      System        Wall        Calls

--------------------------------------------------------------------------------------

**************************************************************************************

Host: DeadLock

Timers On : Tue Feb 24 01:39:04 2026
Timers Off: Tue Feb 24 02:12:50 2026

Wall Time:     2026.75 seconds

                                                       Time (seconds)
Module                                       User      System        Wall        Calls

--------------------------------------------------------------------------------------

**************************************************************************************

Host: DeadLock

Timers On : Tue Feb 24 09:28:01 2026
Timers Off: Tue Feb 24 09:51:27 2026

Wall Time:     1405.70 seconds

                                                       Time (seconds)
Module                                       User      System        Wall        Calls

--------------------------------------------------------------------------------------

**************************************************************************************

Host: DeadLock

Timers On : Wed Feb 25 00:43:19 2026
Timers Off: Wed Feb 25 01:31:59 2026

Wall Time:     2920.26 seconds

                                                       Time (seconds)
Module                                       User      System        Wall        Calls

--------------------------------------------------------------------------------------

**************************************************************************************

Host: DeadLock

Timers On : Wed Feb 25 01:32:42 2026
Timers Off: Wed Feb 25 01:33:56 2026

Wall Time:       73.46 seconds

                                                       Time (seconds)
Module                                       User      System        Wall        Calls

--------------------------------------------------------------------------------------

**************************************************************************************
